 Output coordinates in angstroms (scale by  1.889725989 to convert to a.u.)

  No.       Tag          Charge          X              Y              Z
 ---- ---------------- ---------- -------------- -------------- --------------
    1 H                    1.0000     0.00000000     0.00000000     0.75754000
    2 H                    1.0000     0.00000000     0.00000000    -0.75754000

         Total SCF energy =     -0.999402803661

 Vector    1  Occ=2.000000D+00  E=-4.371861D-01

 Vector    2  Occ=0.000000D+00  E= 3.754134D-02

 Vector    3  Occ=0.000000D+00  E= 6.463210D-01

 Vector    4  Occ=0.000000D+00  E= 6.740268D-01

 Vector    5  Occ=0.000000D+00  E= 1.272465D+00

 Vector    6  Occ=0.000000D+00  E= 1.386329D+00

 Vector    7  Occ=0.000000D+00  E= 1.386329D+00

 Vector    8  Occ=0.000000D+00  E= 1.611669D+00

 Vector    9  Occ=0.000000D+00  E= 1.611669D+00

 Vector   10  Occ=0.000000D+00  E= 2.117160D+00

       Multipole analysis of the density wrt the origin
       ------------------------------------------------

     L   x y z        total         open         nuclear
     -   - - -        -----         ----         -------
     0   0 0 0      0.000000      0.000000      2.000000

     1   1 0 0      0.000000      0.000000      0.000000
     1   0 1 0      0.000000      0.000000      0.000000
     1   0 0 1      0.000000      0.000000      0.000000

     2   2 0 0     -2.243885      0.000000      0.000000
     2   1 1 0      0.000000      0.000000      0.000000
     2   1 0 1      0.000000      0.000000      0.000000
     2   0 2 0     -2.243885      0.000000      0.000000
     2   0 1 1      0.000000      0.000000      0.000000

 Total times  cpu:        0.0s     wall:        0.1s
