 Output coordinates in angstroms (scale by  1.889725989 to convert to a.u.)

  No.       Tag          Charge          X              Y              Z
 ---- ---------------- ---------- -------------- -------------- --------------
    1 O                    8.0000     0.00000000    -0.11741600     0.00000000
    2 H                    1.0000     0.00000000     0.46966400     0.75754000
    3 H                    1.0000     0.00000000     0.46966400    -0.75754000

         Total DFT energy =      -76.381005374149

 Vector    1  Occ=2.000000D+00  E=-1.921234D+01

 Vector    2  Occ=2.000000D+00  E=-1.045415D+00

 Vector    3  Occ=2.000000D+00  E=-5.506778D-01

 Vector    4  Occ=2.000000D+00  E=-4.107180D-01

 Vector    5  Occ=2.000000D+00  E=-3.337947D-01

 Vector    6  Occ=0.000000D+00  E=-1.281436D-02

 Vector    7  Occ=0.000000D+00  E= 2.831951D-02

 Vector    8  Occ=0.000000D+00  E= 8.351519D-02

 Vector    9  Occ=0.000000D+00  E= 1.043627D-01

 Vector   10  Occ=0.000000D+00  E= 1.095891D-01

 Vector   11  Occ=0.000000D+00  E= 1.281725D-01

 Vector   12  Occ=0.000000D+00  E= 1.536764D-01

 Vector   13  Occ=0.000000D+00  E= 1.809861D-01

 Vector   14  Occ=0.000000D+00  E= 2.041107D-01

 Vector   15  Occ=0.000000D+00  E= 2.188236D-01

 Vector   16  Occ=0.000000D+00  E= 2.279598D-01

 Vector   17  Occ=0.000000D+00  E= 3.182026D-01

 Vector   18  Occ=0.000000D+00  E= 3.273924D-01

 Vector   19  Occ=0.000000D+00  E= 3.596061D-01

 Vector   20  Occ=0.000000D+00  E= 4.222265D-01

 Vector   21  Occ=0.000000D+00  E= 4.440277D-01

 Vector   22  Occ=0.000000D+00  E= 5.622666D-01

         Total DFT energy =      -76.381004898493

                       DFT Final Molecular Orbital Analysis
                       ------------------------------------

 Vector    1  Occ=2.000000D+00  E=-1.921234D+01

 Vector    2  Occ=2.000000D+00  E=-1.045416D+00

 Vector    3  Occ=2.000000D+00  E=-5.506782D-01

 Vector    4  Occ=2.000000D+00  E=-4.107189D-01

 Vector    5  Occ=2.000000D+00  E=-3.337956D-01

 Vector    6  Occ=0.000000D+00  E=-1.281532D-02

 Vector    7  Occ=0.000000D+00  E= 2.831254D-02

 Vector    8  Occ=0.000000D+00  E= 8.351226D-02

 Vector    9  Occ=0.000000D+00  E= 1.043624D-01

 Vector   10  Occ=0.000000D+00  E= 1.095879D-01

 Vector   11  Occ=0.000000D+00  E= 1.281636D-01

 Vector   12  Occ=0.000000D+00  E= 1.536742D-01

 Vector   13  Occ=0.000000D+00  E= 1.809859D-01

 Vector   14  Occ=0.000000D+00  E= 2.041107D-01

 Vector   15  Occ=0.000000D+00  E= 2.188229D-01

 Vector   16  Occ=0.000000D+00  E= 2.279596D-01

 Vector   17  Occ=0.000000D+00  E= 3.182024D-01

 Vector   18  Occ=0.000000D+00  E= 3.273903D-01

 Vector   19  Occ=0.000000D+00  E= 3.596032D-01

 Vector   20  Occ=0.000000D+00  E= 4.222245D-01

 Vector   21  Occ=0.000000D+00  E= 4.440273D-01

 Vector   22  Occ=0.000000D+00  E= 5.622658D-01

     Multipole analysis of the density
     ---------------------------------

     L   x y z        total         alpha         beta         nuclear
     -   - - -        -----         -----         ----         -------
     0   0 0 0      0.000000     -5.000000     -5.000000     10.000000

     1   1 0 0      0.000000      0.000000      0.000000      0.000000
     1   0 1 0      0.728053      0.364027      0.364027      0.000000
     1   0 0 1      0.000000      0.000000      0.000000      0.000000

     2   2 0 0     -5.748145     -2.874073     -2.874073      0.000000
     2   1 1 0      0.000000      0.000000      0.000000      0.000000
     2   1 0 1      0.000000      0.000000      0.000000      0.000000
     2   0 2 0     -4.768597     -3.368949     -3.368949      1.969302
     2   0 1 1      0.000000      0.000000      0.000000      0.000000

      Atom:    1  O
           isotropic =     329.5093
 Total times  cpu:      133.8s     wall:      134.0s
